# vtk DataFile Version 3.0
sphere3
ASCII
DATASET POLYDATA
POINTS 386 float
 0 0 0 
1 0 0 
0 0 1 
1 0 1 
-0.112372435629367828369140625 0.5 -0.112372435629367828369140625 
0.5 0.5 -0.3660254180431365966796875 
1.11237239837646484375 0.5 -0.112372435629367828369140625 
0.5 -0.112372435629367828369140625 -0.112372435629367828369140625 
1.366025447845458984375 0.5 0.5 
1.11237239837646484375 -0.112372435629367828369140625 0.5 
0.5 -0.3660254180431365966796875 0.5 
0.5 -0.112372435629367828369140625 1.11237239837646484375 
-0.112372435629367828369140625 -0.112372435629367828369140625 0.5 
-0.3660254180431365966796875 0.5 0.5 
-0.083603553473949432373046875 0.23767618834972381591796875 -0.083603553473949432373046875 
0.168586432933807373046875 0.5 -0.3001031577587127685546875 
0.2184918820858001708984375 0.2184918820858001708984375 -0.2690944969654083251953125 
-0.083603553473949432373046875 0.762323796749114990234375 -0.083603553473949432373046875 
0.23767618834972381591796875 1.08360350131988525390625 -0.083603553473949432373046875 
0.1464466154575347900390625 0.85355341434478759765625 -0.20710678398609161376953125 
0.762323796749114990234375 1.08360350131988525390625 -0.083603553473949432373046875 
0.781508147716522216796875 0.781508147716522216796875 -0.2690944969654083251953125 
0.5 0.831413567066192626953125 -0.3001031577587127685546875 
0.5 0.168586432933807373046875 -0.3001031577587127685546875 
0.23767618834972381591796875 -0.083603553473949432373046875 -0.083603553473949432373046875 
1.08360350131988525390625 0.762323796749114990234375 -0.083603553473949432373046875 
0.831413567066192626953125 0.5 -0.3001031577587127685546875 
1.08360350131988525390625 0.23767618834972381591796875 -0.083603553473949432373046875 
0.762323796749114990234375 -0.083603553473949432373046875 -0.083603553473949432373046875 
0.85355341434478759765625 0.1464466154575347900390625 -0.20710678398609161376953125 
1.2690944671630859375 0.781508147716522216796875 0.2184918820858001708984375 
1.30010318756103515625 0.5 0.168586432933807373046875 
1.2690944671630859375 0.2184918820858001708984375 0.781508147716522216796875 
1.08360350131988525390625 -0.083603553473949432373046875 0.762323796749114990234375 
1.30010318756103515625 0.168586432933807373046875 0.5 
1.08360350131988525390625 -0.083603553473949432373046875 0.23767618834972381591796875 
1.2071068286895751953125 0.1464466154575347900390625 0.1464466154575347900390625 
0.5 -0.3001031577587127685546875 0.168586432933807373046875 
0.2184918820858001708984375 -0.2690944969654083251953125 0.2184918820858001708984375 
0.85355341434478759765625 -0.20710678398609161376953125 0.1464466154575347900390625 
0.781508147716522216796875 -0.2690944969654083251953125 0.781508147716522216796875 
0.831413567066192626953125 -0.3001031577587127685546875 0.5 
0.168586432933807373046875 -0.3001031577587127685546875 0.5 
-0.083603553473949432373046875 -0.083603553473949432373046875 0.23767618834972381591796875 
0.762323796749114990234375 -0.083603553473949432373046875 1.08360350131988525390625 
0.5 -0.3001031577587127685546875 0.831413567066192626953125 
0.23767618834972381591796875 -0.083603553473949432373046875 1.08360350131988525390625 
-0.083603553473949432373046875 -0.083603553473949432373046875 0.762323796749114990234375 
0.1464466154575347900390625 -0.20710678398609161376953125 0.85355341434478759765625 
-0.2690944969654083251953125 0.2184918820858001708984375 0.2184918820858001708984375 
-0.3001031577587127685546875 0.5 0.168586432933807373046875 
-0.20710678398609161376953125 0.85355341434478759765625 0.1464466154575347900390625 
-0.3001031577587127685546875 0.168586432933807373046875 0.5 
-0.083603553473949432373046875 0.23767618834972381591796875 1.08360350131988525390625 
-0.20710678398609161376953125 0.1464466154575347900390625 0.85355341434478759765625 
-0.048279501497745513916015625 0.114280961453914642333984375 -0.048279501497745513916015625 
0.0580611415207386016845703125 0.22218562662601470947265625 -0.19102041423320770263671875 
0.09783060848712921142578125 0.09783060848712921142578125 -0.15308465063571929931640625 
-0.105137474834918975830078125 0.367269933223724365234375 -0.105137474834918975830078125 
0.0188620649278163909912109375 0.5 -0.22007380425930023193359375 
0.028175704181194305419921875 0.3647339642047882080078125 -0.21350188553333282470703125 
0.3310468196868896484375 0.5 -0.349384963512420654296875 
0.35513401031494140625 0.35513401031494140625 -0.3414438068866729736328125 
0.1892257630825042724609375 0.3572648465633392333984375 -0.29564189910888671875 
-0.105137474834918975830078125 0.632730066776275634765625 -0.105137474834918975830078125 
0.02533049322664737701416015625 0.81194150447845458984375 -0.15374411642551422119140625 
5.55111512312578270211815834045e-17 0.6830127239227294921875 -0.18301270902156829833984375 
-0.048279501497745513916015625 0.8857190608978271484375 -0.048279501497745513916015625 
0.114280961453914642333984375 1.0482795238494873046875 -0.048279501497745513916015625 
0.061686538159847259521484375 0.93831348419189453125 -0.104783117771148681640625 
0.3169873058795928955078125 1 -0.18301270902156829833984375 
0.18805851042270660400390625 0.974669516086578369140625 -0.15374411642551422119140625 
0.6352660655975341796875 0.97182428836822509765625 -0.21350188553333282470703125 
0.5 0.981137931346893310546875 -0.22007380425930023193359375 
0.902169406414031982421875 0.902169406414031982421875 -0.15308465063571929931640625 
0.777814388275146484375 0.941938877105712890625 -0.19102041423320770263671875 
0.64486598968505859375 0.64486598968505859375 -0.3414438068866729736328125 
0.5 0.6689531803131103515625 -0.349384963512420654296875 
0.64273512363433837890625 0.81077420711517333984375 -0.29564189910888671875 
0.14959309995174407958984375 0.6808664798736572265625 -0.2710397541522979736328125 
0.3191335499286651611328125 0.8504068851470947265625 -0.2710397541522979736328125 
0.327871501445770263671875 0.672128498554229736328125 -0.3311098515987396240234375 
0.22218562662601470947265625 0.0580611415207386016845703125 -0.19102041423320770263671875 
0.114280961453914642333984375 -0.048279501497745513916015625 -0.048279501497745513916015625 
0.5 0.3310468196868896484375 -0.349384963512420654296875 
0.3572648465633392333984375 0.1892257630825042724609375 -0.29564189910888671875 
0.5 0.0188620649278163909912109375 -0.22007380425930023193359375 
0.367269933223724365234375 -0.105137474834918975830078125 -0.105137474834918975830078125 
0.3647339642047882080078125 0.028175704181194305419921875 -0.21350188553333282470703125 
0.81077420711517333984375 0.64273512363433837890625 -0.29564189910888671875 
0.6689531803131103515625 0.5 -0.349384963512420654296875 
1.0482795238494873046875 0.8857190608978271484375 -0.048279501497745513916015625 
0.941938877105712890625 0.777814388275146484375 -0.19102041423320770263671875 
1.10513746738433837890625 0.632730066776275634765625 -0.105137474834918975830078125 
0.981137931346893310546875 0.5 -0.22007380425930023193359375 
0.97182428836822509765625 0.6352660655975341796875 -0.21350188553333282470703125 
1.10513746738433837890625 0.367269933223724365234375 -0.105137474834918975830078125 
0.974669516086578369140625 0.18805851042270660400390625 -0.15374411642551422119140625 
1 0.3169873058795928955078125 -0.18301270902156829833984375 
1.0482795238494873046875 0.114280961453914642333984375 -0.048279501497745513916015625 
0.8857190608978271484375 -0.048279501497745513916015625 -0.048279501497745513916015625 
0.93831348419189453125 0.061686538159847259521484375 -0.104783117771148681640625 
0.632730066776275634765625 -0.105137474834918975830078125 -0.105137474834918975830078125 
0.6830127239227294921875 5.55111512312578270211815834045e-17 -0.18301270902156829833984375 
0.81194150447845458984375 0.02533049322664737701416015625 -0.15374411642551422119140625 
0.672128498554229736328125 0.327871501445770263671875 -0.3311098515987396240234375 
0.8504068851470947265625 0.3191335499286651611328125 -0.2710397541522979736328125 
0.6808664798736572265625 0.14959309995174407958984375 -0.2710397541522979736328125 
1.19102036952972412109375 0.777814388275146484375 0.0580611415207386016845703125 
1.3493850231170654296875 0.5 0.3310468196868896484375 
1.29564189910888671875 0.64273512363433837890625 0.1892257630825042724609375 
1.22007381916046142578125 0.5 0.0188620649278163909912109375 
1.21350193023681640625 0.6352660655975341796875 0.028175704181194305419921875 
1.29564189910888671875 0.1892257630825042724609375 0.64273512363433837890625 
1.3493850231170654296875 0.3310468196868896484375 0.5 
1.15308463573455810546875 0.09783060848712921142578125 0.902169406414031982421875 
1.0482795238494873046875 -0.048279501497745513916015625 0.8857190608978271484375 
1.19102036952972412109375 0.0580611415207386016845703125 0.777814388275146484375 
1.10513746738433837890625 -0.105137474834918975830078125 0.632730066776275634765625 
1.22007381916046142578125 0.0188620649278163909912109375 0.5 
1.21350193023681640625 0.028175704181194305419921875 0.6352660655975341796875 
1.10513746738433837890625 -0.105137474834918975830078125 0.367269933223724365234375 
1.15374410152435302734375 0.02533049322664737701416015625 0.18805851042270660400390625 
1.1830127239227294921875 0 0.3169873058795928955078125 
1.0482795238494873046875 -0.048279501497745513916015625 0.114280961453914642333984375 
1.10478305816650390625 0.061686538159847259521484375 0.061686538159847259521484375 
1.1830127239227294921875 0.3169873058795928955078125 0 
1.15374410152435302734375 0.18805851042270660400390625 0.02533049322664737701416015625 
1.33110988140106201171875 0.327871501445770263671875 0.327871501445770263671875 
1.2710397243499755859375 0.14959309995174407958984375 0.3191335499286651611328125 
1.2710397243499755859375 0.3191335499286651611328125 0.14959309995174407958984375 
1.0482795238494873046875 0.114280961453914642333984375 1.0482795238494873046875 
[...]
POINT_DATA 386
SCALARS vScalar float 1
LOOKUP_TABLE default
83 
86 
90 
72 
82 
29 
93 
21 
15 
56 
5 
46 
82 
43 
88 
32 
26 
34 
17 
86 
40 
81 
97 
19 
3 
40 
46 
64 
34 
43 
32 
74 
35 
28 
13 
28 
24 
72 
54 
97 
22 
40 
61 
44 
82 
0 
68 
33 
99 
90 
90 
45 
48 
42 
21 
39 
27 
22 
92 
22 
98 
19 
79 
60 
21 
26 
84 
72 
53 
90 
0 
3 
86 
57 
60 
56 
39 
47 
39 
49 
77 
67 
29 
26 
23 
96 
24 
12 
16 
47 
57 
12 
89 
87 
56 
5 
73 
7 
0 
74 
70 
22 
82 
21 
31 
98 
31 
18 
77 
7 
27 
63 
91 
93 
17 
86 
79 
10 
37 
25 
63 
71 
4 
85 
67 
65 
11 
70 
83 
50 
47 
54 
59 
23 
21 
69 
7 
84 
98 
6 
0 
38 
87 
50 
13 
20 
96 
97 
57 
83 
32 
82 
90 
92 
36 
82 
15 
83 
69 
39 
90 
77 
41 
76 
8 
74 
12 
39 
54 
52 
54 
90 
59 
90 
69 
0 
32 
12 
44 
26 
52 
31 
77 
55 
23 
45 
0 
59 
51 
4 
67 
31 
83 
62 
41 
85 
98 
41 
89 
93 
13 
29 
24 
69 
87 
39 
49 
33 
19 
59 
5 
15 
87 
5 
3 
43 
0 
89 
36 
21 
23 
31 
69 
69 
40 
27 
24 
94 
37 
13 
46 
21 
56 
11 
16 
67 
50 
53 
37 
83 
39 
64 
39 
79 
61 
94 
87 
20 
63 
42 
53 
16 
53 
7 
34 
63 
85 
49 
85 
92 
66 
47 
29 
75 
18 
8 
32 
96 
65 
87 
79 
35 
63 
34 
39 
82 
51 
13 
64 
40 
93 
71 
67 
33 
23 
35 
39 
52 
40 
78 
20 
67 
53 
98 
3 
23 
12 
34 
38 
84 
23 
52 
25 
60 
48 
32 
27 
41 
1 
32 
57 
69 
18 
54 
21 
34 
42 
54 
34 
44 
25 
96 
12 
28 
97 
82 
17 
50 
64 
10 
16 
6 
65 
34 
97 
86 
36 
67 
95 
30 
61 
35 
0 
14 
25 
49 
99 
99 
66 
76 
84 
81 
64 
69 
42 
65 
58 
38 
30 
95 
29 
7 
96 
69 
69 
95 
51 
93 
94 
95 
82 
5 
90 
93 
51 
75 
42 
64 
42 
58 
94 
53 
19 
29 
58 
13 
COLOR_SCALARS vVector2 2
86 77 
92 49 
59 63 
36 11 
30 62 
2 22 
56 11 
19 84 
70 13 
73 62 
25 84 
29 13 
45 14 
50 87 
84 3 
60 76 
86 94 
78 67 
92 52 
41 65 
29 31 
75 9 
53 86 
24 28 
19 70 
49 96 
51 21 
28 41 
64 24 
91 27 
51 37 
21 58 
93 18 
29 76 
38 6 
88 69 
43 70 
25 44 
86 69 
7 55 
28 99 
22 11 
30 78 
26 22 
58 24 
36 52 
71 73 
94 60 
96 59 
95 26 
84 76 
56 79 
72 59 
87 6 
55 19 
11 40 
50 84 
69 96 
72 72 
99 40 
90 24 
36 32 
69 73 
42 79 
67 4 
59 44 
21 42 
8 58 
48 3 
54 67 
46 88 
33 63 
25 52 
29 36 
4 28 
2 94 
2 28 
38 59 
92 15 
64 85 
0 38 
88 92 
90 82 
32 61 
61 81 
67 77 
57 14 
86 0 
52 78 
70 51 
27 12 
90 12 
74 55 
88 38 
17 6 
59 17 
58 73 
78 57 
59 18 
33 57 
99 17 
94 73 
90 92 
57 74 
21 37 
25 81 
39 96 
21 70 
85 36 
59 57 
50 36 
49 44 
75 55 
18 5 
30 93 
53 43 
77 62 
32 94 
91 53 
91 10 
55 90 
61 33 
51 5 
6 95 
26 63 
60 36 
42 32 
84 72 
72 98 
30 73 
24 82 
43 98 
62 62 
24 72 
57 65 
18 1 
59 28 
8 34 
15 52 
10 16 
78 9 
89 26 
31 32 
79 90 
57 94 
33 82 
25 4 
32 34 
8 95 
76 54 
82 21 
11 85 
83 14 
25 28 
60 18 
21 10 
70 37 
50 57 
71 51 
98 88 
76 99 
99 57 
35 68 
5 66 
93 78 
45 0 
27 82 
34 21 
61 62 
50 62 
73 15 
63 91 
28 71 
41 70 
17 61 
6 38 
54 4 
38 69 
60 49 
86 83 
21 93 
73 64 
13 33 
93 68 
86 71 
81 61 
54 75 
19 89 
76 83 
56 81 
12 92 
2 74 
77 87 
25 33 
53 26 
48 5 
60 62 
2 10 
40 8 
31 10 
91 38 
71 80 
88 54 
10 73 
79 94 
64 42 
15 86 
87 22 
42 54 
63 18 
4 33 
35 87 
2 37 
60 4 
16 92 
79 61 
45 82 
86 53 
6 7 
20 80 
37 33 
17 9 
45 95 
59 1 
25 43 
66 78 
33 13 
68 15 
63 98 
31 28 
83 38 
72 26 
52 45 
83 3 
39 74 
94 13 
92 32 
35 95 
70 76 
0 92 
63 35 
23 51 
4 65 
91 47 
19 31 
19 43 
39 43 
80 98 
98 95 
66 98 
66 97 
86 12 
97 32 
98 49 
3 25 
33 15 
97 0 
13 79 
75 65 
16 29 
15 95 
13 26 
63 0 
82 44 
65 94 
53 62 
34 7 
15 84 
51 16 
61 2 
20 41 
8 62 
66 11 
32 90 
80 94 
44 75 
73 11 
83 99 
69 46 
11 23 
39 81 
18 96 
97 0 
90 57 
90 92 
22 40 
66 25 
20 57 
21 26 
28 69 
63 21 
23 82 
63 8 
60 68 
87 54 
29 96 
9 55 
59 81 
71 13 
55 61 
3 0 
12 4 
94 17 
26 14 
21 20 
86 4 
10 68 
46 74 
65 89 
38 99 
32 48 
97 69 
70 85 
33 7 
85 88 
47 25 
30 91 
38 42 
85 8 
2 45 
57 35 
86 30 
56 89 
82 57 
20 39 
82 23 
84 53 
36 10 
23 41 
60 90 
89 81 
75 1 
77 66 
33 36 
16 60 
86 8 
35 93 
12 96 
74 50 
51 25 
76 34 
31 51 
88 61 
69 28 
82 33 
90 51 
47 29 
28 89 
90 84 
84 71 
39 90 
26 50 
79 58 
11 77 
34 72 
32 49 
1 2 
27 14 
54 69 
1 13 
35 92 
53 13 
51 56 
81 95 
36 8 
33 14 
24 10 
34 26 
66 6 
26 84 
55 73 
46 66 
8 90 
55 1 
91 88 
81 56 
34 49 
43 72 
56 40 
10 28 
24 56 
19 71 
96 67 
46 86 
52 8 
44 30 
VECTORS vVector3 float 
15 93 35 
21 62 27 
26 40 26 
68 67 29 
23 67 35 
58 69 67 
42 29 73 
37 98 24 
26 91 80 
70 96 81 
27 36 5 
57 24 95 
67 34 64 
8 76 78 
51 54 99 
68 39 12 
39 95 70 
1 97 2 
56 1 80 
89 44 19 
17 97 71 
27 67 56 
65 6 83 
71 32 29 
68 8 15 
23 18 45 
55 79 88 
50 93 0 
14 87 56 
65 59 36 
28 75 7 
95 29 37 
28 43 11 
4 43 63 
40 4 18 
17 17 96 
83 90 99 
90 5 39 
82 42 64 
4 48 11 
43 46 68 
10 5 1 
5 20 36 
65 8 16 
37 62 24 
99 79 50 
31 81 30 
63 99 81 
73 13 68 
66 84 40 
42 36 7 
18 87 12 
9 36 10 
1 13 72 
99 21 4 
67 5 28 
58 20 24 
81 30 84 
50 25 85 
42 98 13 
90 9 81 
55 94 4 
76 50 55 
84 93 5 
13 61 54 
2 2 6 
68 28 89 
98 36 8 
33 33 48 
46 68 29 
97 49 90 
97 53 92 
96 75 88 
60 14 21 
27 50 48 
97 99 43 
3 0 81 
51 35 34 
27 4 29 
29 43 35 
71 49 89 
95 43 44 
40 41 69 
42 60 17 
9 90 25 
34 90 26 
68 5 58 
46 26 94 
29 46 90 
80 31 93 
86 14 55 
79 10 69 
41 20 33 
66 70 84 
60 49 37 
18 45 83 
37 89 83 
14 71 29 
38 25 88 
81 93 58 
39 69 63 
47 31 62 
91 57 15 
91 47 51 
40 54 30 
16 16 2 
4 38 80 
62 12 79 
4 76 83 
44 99 11 
60 18 5 
11 5 34 
14 89 68 
82 22 82 
74 26 93 
74 14 13 
75 88 19 
17 46 35 
43 73 28 
18 17 36 
58 30 4 
85 89 73 
50 68 3 
39 49 20 
77 96 81 
55 70 18 
96 79 21 
27 34 40 
30 63 47 
14 59 22 
35 32 4 
86 40 78 
83 41 48 
22 54 35 
47 71 76 
3 53 33 
6 97 20 
98 91 76 
71 89 59 
24 9 39 
53 81 14 
67 47 23 
22 81 75 
54 50 31 
81 81 3 
81 87 15 
22 92 51 
81 6 15 
99 62 97 
77 9 87 
66 63 60 
86 85 30 
76 16 20 
39 25 90 
43 37 28 
55 88 25 
53 8 22 
97 27 26 
49 10 28 
10 93 77 
52 31 87 
66 52 17 
98 84 95 
28 54 28 
97 55 72 
25 97 83 
21 93 34 
59 85 57 
72 41 16 
82 99 17 
6 51 64 
72 37 37 
80 87 56 
52 65 11 
83 51 12 
67 64 89 
75 79 41 
36 70 56 
14 65 14 
39 69 35 
90 89 9 
35 48 95 
98 49 55 
56 60 33 
58 77 40 
90 23 50 
64 42 24 
44 69 38 
19 33 43 
75 66 11 
29 2 68 
7 18 16 
72 73 57 
97 96 18 
74 80 93 
30 29 59 
24 19 80 
80 26 83 
23 38 57 
20 5 90 
70 21 67 
43 95 99 
86 69 32 
30 33 63 
49 99 51 
30 86 15 
81 11 34 
87 73 43 
44 24 39 
53 12 69 
99 34 19 
53 69 50 
62 89 10 
11 57 29 
21 22 5 
28 78 47 
87 99 51 
26 48 94 
92 17 64 
66 94 54 
84 17 12 
65 56 8 
22 71 95 
76 52 71 
72 91 89 
12 50 96 
86 99 70 
41 42 39 
90 39 2 
57 4 71 
25 95 40 
34 58 25 
72 46 39 
61 25 42 
44 96 30 
57 19 60 
76 79 90 
98 7 41 
40 84 1 
9 96 40 
4 73 6 
49 51 30 
86 2 25 
7 84 31 
53 28 27 
81 23 68 
38 88 94 
86 18 52 
10 5 79 
25 72 78 
48 47 72 
59 77 0 
3 35 51 
54 61 6 
84 28 97 
60 81 14 
97 8 29 
34 16 14 
86 30 26 
69 52 9 
33 28 76 
0 62 86 
8 97 16 
40 20 26 
99 34 46 
3 86 42 
10 34 69 
96 24 82 
61 43 37 
81 60 88 
93 24 28 
42 70 96 
0 15 87 
50 93 33 
93 13 54 
23 38 51 
65 68 81 
77 35 14 
7 72 91 
87 57 36 
20 14 71 
34 83 64 
67 74 35 
32 49 29 
47 29 49 
68 43 55 
36 53 60 
4 87 83 
97 5 27 
70 27 98 
60 83 16 
92 11 35 
62 68 95 
76 9 73 
73 57 81 
44 42 80 
47 54 66 
42 73 1 
58 99 22 
90 80 71 
20 0 42 
7 59 58 
58 36 90 
73 37 65 
9 63 0 
33 58 56 
31 69 28 
58 5 10 
67 90 26 
5 0 62 
61 17 7 
38 28 39 
92 80 42 
43 0 50 
20 90 40 
83 61 94 
63 20 20 
92 30 22 
94 80 8 
84 22 87 
2 92 48 
40 49 51 
54 48 72 
88 76 37 
94 5 14 
69 36 15 
99 24 54 
92 42 58 
21 11 69 
2 55 47 
39 58 17 
11 74 78 
76 69 61 
27 6 99 
39 70 67 
67 77 66 
37 46 19 
34 40 17 
31 2 8 
42 90 47 
69 95 63 
80 20 97 
96 74 1 
16 52 82 
2 77 23 
35 60 46 
2 28 49 
13 76 63 
94 59 36 
9 38 0 
35 75 50 
62 28 78 
53 44 34 
5 57 36 
65 95 10 
7 67 76 
60 63 82 
96 33 58 
7 59 27 
67 18 60 
31 43 12 
62 13 28 
10 99 41 
90 89 54 
82 4 26 
87 64 57 
64 38 23 
1 45 25 
89 56 47 
3 60 40 
48 95 90 
67 63 4 
68 61 35 
51 44 10 
35 47 48 
0 29 51 
60 1 64 
55 11 33 
96 59 36 
46 97 75 
50 25 85 
55 80 24 
44 3 30 
70 94 45 
86 98 5 
21 47 7 
CELL_DATA 768
SCALARS fScalar float 1
LOOKUP_TABLE default
58 
53 
2 
86 
51 
92 
81 
51 
14 
29 
78 
86 
39 
55 
46 
50 
56 
58 
81 
63 
70 
12 
79 
95 
11 
32 
41 
94 
37 
98 
35 
9 
71 
89 
70 
18 
84 
24 
47 
57 
99 
84 
68 
53 
69 
32 
13 
50 
4 
93 
50 
48 
54 
70 
40 
16 
59 
67 
76 
42 
93 
9 
49 
20 
39 
57 
83 
48 
49 
21 
62 
61 
59 
57 
17 
23 
63 
49 
4 
4 
27 
45 
32 
60 
40 
48 
63 
54 
77 
75 
23 
49 
51 
59 
67 
9 
70 
64 
32 
4 
75 
73 
50 
31 
98 
90 
79 
28 
58 
29 
82 
47 
71 
17 
27 
98 
47 
86 
83 
7 
49 
38 
35 
83 
2 
8 
61 
41 
44 
59 
40 
71 
61 
83 
50 
29 
87 
37 
5 
81 
89 
15 
4 
6 
97 
3 
91 
28 
75 
49 
35 
74 
47 
4 
89 
16 
41 
5 
67 
24 
91 
90 
52 
0 
38 
73 
7 
48 
76 
22 
69 
92 
96 
61 
69 
55 
81 
24 
61 
40 
96 
96 
53 
72 
26 
96 
63 
18 
83 
87 
51 
50 
29 
8 
63 
9 
90 
39 
17 
55 
39 
16 
55 
3 
11 
96 
62 
4 
29 
65 
61 
66 
97 
90 
14 
30 
86 
25 
42 
69 
24 
70 
82 
47 
21 
26 
32 
12 
32 
58 
23 
85 
5 
19 
1 
13 
2 
56 
22 
90 
7 
43 
18 
30 
55 
79 
50 
26 
93 
27 
47 
18 
5 
37 
66 
52 
56 
46 
49 
81 
1 
75 
5 
60 
33 
90 
34 
83 
70 
66 
40 
52 
44 
90 
75 
54 
35 
75 
86 
89 
49 
30 
92 
16 
77 
82 
22 
8 
64 
79 
69 
17 
72 
18 
40 
88 
83 
96 
80 
3 
82 
73 
89 
82 
57 
5 
59 
51 
28 
45 
26 
31 
23 
90 
79 
97 
89 
91 
54 
79 
54 
50 
59 
84 
28 
18 
99 
3 
33 
13 
3 
38 
87 
69 
38 
90 
72 
4 
99 
15 
38 
69 
22 
45 
34 
67 
91 
46 
33 
55 
71 
58 
82 
31 
58 
91 
19 
98 
61 
70 
45 
70 
27 
78 
85 
41 
94 
18 
39 
23 
59 
5 
94 
79 
74 
72 
10 
53 
12 
59 
21 
46 
56 
81 
91 
68 
64 
57 
25 
46 
4 
89 
94 
46 
17 
29 
28 
43 
27 
27 
76 
40 
5 
41 
4 
55 
89 
16 
86 
83 
22 
82 
40 
75 
18 
81 
55 
54 
56 
46 
38 
83 
74 
48 
55 
97 
18 
41 
26 
87 
65 
22 
94 
81 
26 
84 
42 
72 
59 
85 
17 
75 
49 
20 
13 
80 
27 
35 
26 
35 
42 
53 
86 
40 
78 
42 
57 
88 
86 
62 
90 
97 
85 
12 
93 
84 
2 
2 
30 
71 
27 
76 
27 
32 
15 
98 
81 
17 
9 
88 
36 
46 
67 
9 
4 
78 
41 
27 
2 
15 
46 
15 
24 
40 
31 
53 
46 
23 
86 
64 
79 
44 
8 
49 
73 
38 
4 
97 
69 
34 
5 
62 
95 
7 
78 
25 
80 
21 
25 
12 
39 
90 
50 
36 
64 
8 
83 
28 
26 
2 
62 
40 
74 
30 
57 
2 
23 
57 
92 
27 
60 
87 
93 
71 
45 
21 
1 
41 
0 
93 
95 
25 
28 
7 
29 
19 
61 
84 
58 
27 
67 
65 
23 
23 
85 
40 
3 
39 
37 
96 
44 
25 
78 
81 
78 
3 
47 
93 
1 
66 
50 
26 
24 
25 
39 
58 
73 
94 
84 
51 
60 
61 
72 
75 
46 
76 
93 
9 
18 
12 
86 
20 
5 
98 
28 
57 
60 
86 
0 
59 
21 
94 
80 
42 
89 
27 
62 
68 
69 
55 
96 
7 
41 
16 
41 
79 
57 
36 
54 
57 
40 
28 
81 
90 
61 
93 
29 
31 
98 
12 
15 
42 
93 
98 
58 
33 
9 
66 
23 
67 
8 
29 
65 
13 
51 
4 
30 
77 
35 
87 
51 
37 
5 
12 
80 
90 
83 
82 
23 
15 
60 
55 
96 
66 
33 
10 
27 
73 
85 
79 
85 
82 
86 
76 
75 
77 
33 
36 
62 
44 
4 
87 
74 
22 
14 
83 
92 
48 
23 
81 
50 
19 
59 
63 
7 
72 
42 
79 
88 
45 
29 
8 
95 
12 
36 
31 
1 
60 
46 
81 
85 
67 
15 
78 
68 
58 
54 
67 
95 
81 
57 
3 
71 
43 
38 
8 
6 
58 
26 
10 
27 
45 
29 
96 
74 
80 
14 
24 
17 
52 
77 
56 
68 
94 
97 
23 
19 
28 
97 
72 
85 
77 
57 
24 
87 
41 
73 
40 
COLOR_SCALARS fVector2 2
0 78 
79 7 
4 8 
85 6 
37 1 
69 0 
56 87 
83 18 
61 82 
11 94 
37 26 
41 84 
33 48 
10 85 
12 55 
20 89 
37 42 
54 9 
19 16 
6 63 
1 77 
86 17 
89 37 
80 24 
14 43 
7 96 
31 63 
17 35 
53 15 
80 80 
38 23 
45 25 
2 80 
74 44 
38 41 
66 38 
59 88 
6 98 
54 62 
32 40 
4 89 
82 50 
19 92 
75 63 
77 9 
31 0 
56 29 
48 44 
72 47 
9 48 
55 59 
42 88 
8 69 
7 11 
71 64 
76 41 
26 65 
58 32 
30 94 
92 44 
49 98 
87 2 
58 68 
74 58 
56 54 
60 35 
55 3 
83 0 
37 21 
42 43 
86 70 
28 24 
66 93 
35 46 
16 96 
6 60 
17 34 
93 18 
13 92 
61 56 
50 54 
11 26 
52 57 
50 27 
57 84 
37 13 
74 24 
39 78 
2 27 
46 90 
42 90 
12 93 
60 87 
2 83 
34 36 
69 25 
58 85 
86 52 
27 30 
33 71 
55 38 
77 57 
57 78 
44 26 
68 77 
87 79 
13 63 
74 66 
60 71 
24 3 
88 3 
0 55 
17 58 
34 99 
51 96 
92 82 
52 54 
38 60 
45 22 
65 96 
97 50 
50 55 
91 11 
23 36 
65 91 
22 88 
95 40 
75 41 
58 52 
70 27 
80 74 
99 79 
12 46 
62 28 
54 66 
96 18 
0 7 
28 90 
17 22 
7 23 
18 27 
12 8 
19 56 
12 8 
30 72 
18 31 
44 69 
26 23 
79 94 
9 73 
37 72 
11 45 
43 93 
7 96 
93 17 
54 87 
46 23 
89 82 
67 21 
6 58 
88 79 
69 97 
16 32 
85 14 
77 37 
62 45 
35 46 
53 73 
91 77 
55 8 
77 40 
89 69 
94 23 
4 5 
69 76 
99 57 
58 79 
46 72 
77 51 
37 68 
21 48 
51 77 
30 72 
43 18 
1 23 
18 62 
20 35 
0 22 
50 47 
4 62 
47 2 
58 98 
69 98 
47 78 
36 64 
54 14 
70 68 
89 40 
53 51 
23 41 
62 46 
69 89 
1 90 
12 88 
19 71 
30 87 
52 34 
96 97 
99 56 
22 86 
71 8 
80 49 
40 34 
16 82 
51 14 
53 64 
72 62 
21 89 
10 92 
75 80 
9 74 
38 52 
51 98 
57 32 
3 16 
63 5 
26 95 
92 23 
63 48 
28 37 
59 90 
95 72 
96 75 
43 54 
70 41 
20 86 
38 45 
28 25 
79 30 
47 13 
51 83 
9 26 
91 77 
97 17 
65 15 
56 56 
97 76 
8 2 
85 75 
6 18 
53 23 
69 26 
24 72 
25 64 
15 21 
57 1 
31 90 
83 12 
32 16 
63 71 
51 90 
87 33 
68 46 
92 73 
91 85 
99 88 
28 59 
50 1 
80 37 
94 39 
93 87 
12 21 
15 69 
14 21 
75 76 
71 25 
57 15 
17 14 
53 24 
8 61 
28 15 
57 81 
41 70 
24 39 
72 32 
91 86 
48 18 
89 78 
15 93 
85 1 
10 86 
86 57 
49 92 
97 55 
84 0 
17 37 
90 87 
1 30 
22 59 
77 0 
58 64 
68 79 
57 10 
78 88 
69 3 
7 84 
4 89 
7 8 
60 85 
11 21 
26 4 
6 40 
0 16 
42 7 
60 77 
38 24 
31 78 
27 79 
2 88 
8 63 
10 14 
53 98 
78 33 
44 99 
37 89 
0 59 
29 29 
20 46 
95 27 
48 27 
9 25 
93 85 
45 66 
15 72 
12 40 
70 92 
23 79 
82 18 
89 19 
27 83 
34 19 
74 28 
39 57 
13 66 
52 83 
50 66 
3 94 
78 17 
68 93 
19 34 
7 97 
37 85 
58 20 
46 12 
53 67 
67 63 
19 98 
6 16 
41 28 
28 80 
65 96 
24 24 
31 5 
10 57 
58 3 
93 94 
24 76 
25 92 
51 3 
94 49 
53 90 
89 72 
77 43 
92 67 
15 23 
5 39 
15 23 
94 60 
11 57 
20 16 
20 66 
49 44 
37 91 
49 87 
91 53 
47 73 
10 8 
87 33 
88 67 
69 91 
97 68 
0 89 
18 12 
96 8 
6 60 
14 38 
81 74 
76 56 
2 75 
36 94 
73 19 
51 96 
64 55 
99 13 
14 21 
30 91 
37 16 
8 5 
15 28 
88 29 
94 12 
62 46 
68 62 
29 3 
15 26 
46 60 
45 43 
89 63 
10 87 
83 83 
15 53 
64 61 
24 99 
1 96 
58 96 
21 97 
6 75 
10 69 
0 66 
42 37 
29 41 
49 70 
22 17 
93 17 
55 47 
56 61 
45 94 
89 2 
86 10 
64 86 
64 85 
37 54 
26 91 
26 86 
92 87 
46 32 
4 63 
28 43 
4 89 
52 41 
84 17 
29 50 
98 57 
54 92 
5 84 
23 76 
2 60 
57 73 
31 55 
91 79 
5 82 
73 86 
73 18 
8 88 
53 44 
93 64 
9 57 
56 15 
32 46 
45 90 
6 86 
79 6 
74 86 
77 37 
70 87 
17 15 
40 22 
5 21 
84 98 
81 16 
88 75 
57 28 
67 11 
83 47 
22 94 
37 72 
38 54 
27 70 
28 28 
92 84 
43 74 
41 57 
41 95 
82 43 
98 23 
6 82 
91 24 
89 28 
76 42 
79 76 
52 94 
77 62 
56 68 
65 32 
11 60 
29 11 
39 24 
68 64 
58 60 
27 22 
19 54 
60 40 
76 69 
63 40 
51 73 
2 73 
36 38 
70 46 
40 3 
38 23 
16 74 
27 85 
73 30 
93 56 
23 58 
99 65 
54 91 
38 16 
23 81 
79 16 
28 76 
98 47 
95 24 
84 34 
72 80 
46 80 
66 93 
24 8 
49 2 
70 44 
50 27 
4 19 
36 44 
14 64 
20 51 
92 48 
71 86 
96 53 
72 88 
42 53 
57 77 
59 84 
24 36 
10 10 
72 2 
64 94 
32 11 
75 19 
68 91 
45 91 
50 76 
59 68 
40 43 
19 71 
18 32 
67 13 
46 22 
97 19 
14 51 
18 12 
90 79 
13 10 
76 82 
47 40 
53 91 
82 31 
70 54 
48 19 
79 77 
94 90 
89 59 
23 73 
25 44 
6 25 
65 36 
24 62 
35 13 
43 23 
64 34 
57 2 
98 52 
92 48 
89 59 
15 62 
27 89 
27 31 
63 95 
15 79 
90 25 
98 81 
27 74 
1 92 
3 49 
41 2 
37 3 
77 81 
67 93 
91 43 
25 60 
80 71 
99 44 
42 10 
85 35 
73 91 
38 23 
26 64 
75 41 
47 25 
17 23 
13 40 
52 72 
37 80 
29 46 
53 89 
20 26 
47 56 
67 69 
9 60 
43 50 
23 88 
36 38 
97 65 
26 94 
66 64 
20 21 
48 65 
77 6 
60 70 
44 49 
50 31 
96 39 
61 13 
91 52 
67 1 
46 92 
51 44 
77 86 
71 89 
36 26 
94 58 
69 45 
3 58 
95 7 
89 82 
85 12 
57 69 
91 19 
75 44 
42 99 
84 54 
50 13 
34 18 
4 3 
76 27 
85 97 
40 45 
2 31 
16 62 
30 32 
25 68 
6 49 
46 17 
82 45 
43 98 
61 21 
39 91 
52 0 
90 34 
67 50 
51 10 
67 79 
58 28 
28 12 
35 80 
50 1 
87 26 
98 16 
19 99 
20 84 
25 57 
92 46 
34 60 
37 15 
52 27 
42 51 
43 58 
13 93 
91 31 
91 73 
16 13 
24 96 
98 34 
2 94 
94 53 
78 20 
65 36 
97 40 
73 97 
30 61 
25 40 
69 20 
32 46 
40 33 
5 82 
44 77 
90 44 
69 18 
65 70 
22 45 
87 88 
47 92 
56 21 
15 57 
59 41 
72 80 
20 95 
20 54 
72 77 
40 1 
84 65 
2 72 
59 45 
54 27 
78 82 
48 34 
70 81 
29 96 
62 90 
59 3 
42 70 
5 53 
96 9 
57 63 
73 89 
96 87 
71 94 
77 28 
4 89 
24 57 
3 90 
80 6 
80 67 
80 94 
88 47 
0 78 
69 63 
0 10 
57 98 
61 5 
62 5 
25 18 
78 63 
45 61 
17 90 
38 17 
77 96 
55 32 
4 94 
VECTORS fVector3 float 
29 7 58 
72 75 10 
40 26 2 
46 23 4 
33 10 48 
71 50 8 
88 28 62 
59 23 45 
72 7 57 
30 44 57 
78 60 28 
25 82 65 
58 44 23 
89 83 44 
93 42 0 
28 50 49 
41 14 24 
58 64 54 
18 60 99 
18 99 5 
11 29 28 
55 79 83 
89 47 53 
11 99 84 
26 84 42 
61 18 25 
10 86 94 
83 58 82 
13 17 14 
41 6 64 
31 52 42 
24 56 63 
6 85 91 
56 88 61 
2 79 48 
42 50 42 
61 35 96 
56 13 35 
44 10 2 
51 86 71 
89 46 39 
72 43 86 
18 76 57 
15 19 25 
9 80 95 
22 20 46 
64 28 24 
94 18 72 
67 39 19 
54 70 28 
50 29 31 
77 6 68 
98 3 87 
69 26 3 
88 26 86 
27 78 22 
99 4 23 
88 8 87 
39 51 72 
6 80 22 
86 28 76 
26 38 58 
81 46 28 
14 14 62 
35 15 34 
7 46 64 
37 33 42 
68 16 46 
59 3 87 
75 77 10 
97 93 17 
17 66 58 
59 86 9 
30 95 2 
13 92 74 
94 3 6 
39 34 52 
42 4 5 
2 44 87 
1 26 48 
39 96 9 
80 2 12 
3 46 61 
52 53 71 
48 10 11 
54 77 61 
42 54 26 
64 42 25 
4 54 80 
60 94 0 
88 96 19 
25 54 48 
82 24 29 
86 6 37 
9 46 30 
51 57 73 
64 83 39 
3 68 76 
67 66 37 
92 94 17 
0 7 47 
59 93 92 
2 60 47 
61 11 92 
21 60 71 
80 87 86 
36 24 9 
59 29 27 
84 73 35 
58 45 15 
61 68 42 
62 36 31 
38 76 87 
40 70 72 
82 10 94 
53 53 2 
55 14 91 
44 28 88 
34 37 44 
55 47 6 
83 2 3 
92 5 21 
95 88 39 
57 58 26 
50 20 90 
58 57 90 
68 40 97 
53 23 29 
33 16 10 
50 72 0 
80 38 31 
63 19 19 
54 17 69 
87 95 96 
29 56 38 
55 29 8 
18 15 78 
35 82 8 
85 57 69 
99 36 79 
7 73 56 
74 30 76 
46 55 39 
28 97 65 
72 29 61 
83 77 56 
52 70 51 
84 72 30 
84 59 91 
74 81 2 
66 20 1 
43 15 67 
22 80 17 
98 91 8 
62 67 50 
40 72 59 
38 42 38 
50 63 14 
16 65 65 
41 20 25 
31 28 51 
13 59 91 
86 66 95 
73 1 79 
96 18 57 
4 93 25 
5 49 5 
81 39 39 
91 64 30 
60 51 26 
15 81 33 
39 46 70 
70 75 14 
38 95 21 
77 29 80 
96 66 38 
2 49 25 
47 16 47 
18 16 98 
16 66 49 
5 69 66 
75 5 26 
25 29 88 
76 61 86 
94 70 89 
96 24 32 
40 47 92 
43 25 4 
1 78 8 
62 51 32 
66 43 26 
37 50 98 
4 12 76 
55 49 8 
77 51 15 
12 20 10 
41 7 71 
89 93 4 
47 8 52 
72 1 92 
54 26 19 
84 10 49 
47 42 83 
7 11 96 
52 91 24 
43 36 65 
3 89 96 
94 96 92 
17 58 67 
37 74 77 
0 66 96 
0 35 38 
46 86 30 
46 85 92 
52 40 41 
90 54 30 
87 72 97 
60 20 76 
24 9 29 
83 27 20 
88 99 80 
32 25 76 
71 63 70 
91 34 41 
53 38 96 
52 3 57 
36 58 20 
62 64 38 
65 7 82 
27 33 75 
28 11 46 
32 31 82 
28 58 39 
67 60 61 
38 97 75 
56 1 98 
74 23 29 
31 8 35 
77 46 90 
32 37 10 
93 7 36 
89 35 49 
95 23 38 
13 74 16 
68 49 53 
14 1 15 
76 38 11 
55 3 77 
11 98 1 
42 74 67 
3 67 77 
94 46 64 
60 79 27 
64 36 15 
84 9 95 
27 60 20 
82 25 88 
70 43 91 
66 97 4 
54 99 81 
2 31 2 
65 70 11 
17 91 89 
29 58 70 
57 97 37 
80 53 71 
20 45 81 
29 19 92 
43 9 47 
3 3 88 
81 25 41 
63 32 67 
46 44 89 
27 9 30 
66 31 80 
42 4 3 
56 72 47 
45 63 58 
7 81 33 
17 74 92 
75 22 72 
45 66 53 
58 38 85 
92 83 72 
38 42 6 
50 18 9 
55 45 84 
79 47 16 
55 7 76 
11 75 95 
56 12 57 
35 41 3 
50 80 40 
11 4 15 
93 47 27 
74 73 1 
41 77 28 
88 3 10 
36 85 64 
55 70 47 
72 85 37 
61 61 9 
19 46 66 
41 66 25 
57 24 25 
69 31 69 
90 65 51 
62 78 6 
68 54 51 
0 69 45 
62 95 35 
20 49 57 
32 14 95 
75 62 13 
0 60 46 
54 0 71 
81 4 79 
7 11 94 
14 29 3 
56 60 75 
78 64 14 
80 87 54 
38 37 45 
73 58 28 
91 46 49 
32 79 23 
97 9 16 
36 58 83 
32 20 37 
2 91 73 
63 42 4 
19 42 46 
33 81 77 
48 99 92 
65 14 31 
15 33 86 
57 95 21 
22 68 52 
71 89 18 
55 44 49 
83 2 4 
49 83 23 
93 62 25 
64 37 56 
17 60 80 
86 33 68 
71 4 78 
55 71 79 
99 84 82 
91 88 94 
89 94 30 
4 60 89 
0 13 91 
76 46 96 
45 44 56 
88 9 9 
56 23 58 
18 58 82 
73 18 26 
37 73 76 
9 53 5 
69 33 47 
96 49 63 
58 36 75 
65 47 29 
37 54 99 
18 45 9 
23 21 41 
96 9 91 
78 11 97 
53 42 96 
33 7 18 
86 53 16 
82 40 28 
75 45 34 
14 10 34 
35 0 82 